<?xml version="1.0" encoding="UTF-8"?>

<!-- generated on 2025-10-22T19:29:07.199469+07:00 by Eclipse SUMO sumo v1_24_0+1412-284a4f7aa5c
<sumoConfiguration xmlns:xsi="http://www.w3.org/2001/XMLSchema-instance" xsi:noNamespaceSchemaLocation="http://sumo.dlr.de/xsd/sumoConfiguration.xsd">

    <input>
        <net-file value="osm.net.xml.gz"/>
        <route-files value="osm.passenger.trips.xml"/>
        <additional-files value="osm.poly.xml.gz,output.add.xml"/>
    </input>

    <output>
        <fcd-output value="trace.xml"/>
        <tripinfo-output value="tripinfos.xml"/>
        <statistic-output value="stats.xml"/>
    </output>

    <processing>
        <ignore-route-errors value="true"/>
        <tls.actuated.jam-threshold value="30"/>
    </processing>

    <routing>
        <device.rerouting.adaptation-steps value="18"/>
        <device.rerouting.adaptation-interval value="10"/>
    </routing>

    <report>
        <verbose value="true"/>
        <duration-log.statistics value="true"/>
        <no-step-log value="true"/>
    </report>

    <gui_only>
        <gui-settings-file value="osm.view.xml"/>
    </gui_only>

</sumoConfiguration>
-->

<meandata xmlns:xsi="http://www.w3.org/2001/XMLSchema-instance" xsi:noNamespaceSchemaLocation="http://sumo.dlr.de/xsd/meandata_file.xsd">
    <interval begin="0.00" end="3600.00" id="wizard_example">
        <edge id="-1038766564" sampledSeconds="0.00" departed="0" arrived="0" entered="0" left="0" laneChangedFrom="0" laneChangedTo="0"/>
        <edge id="-1038766568" sampledSeconds="0.00" departed="0" arrived="0" entered="0" left="0" laneChangedFrom="0" laneChangedTo="0"/>
        <edge id="-1038766569" sampledSeconds="0.00" departed="0" arrived="0" entered="0" left="0" laneChangedFrom="0" laneChangedTo="0"/>
        <edge id="-1038801129" sampledSeconds="0.00" departed="0" arrived="0" entered="0" left="0" laneChangedFrom="0" laneChangedTo="0"/>
        <edge id="-1065901962" sampledSeconds="0.00" departed="0" arrived="0" entered="0" left="0" laneChangedFrom="0" laneChangedTo="0"/>
        <edge id="-1065901965" sampledSeconds="0.00" departed="0" arrived="0" entered="0" left="0" laneChangedFrom="0" laneChangedTo="0"/>
        <edge id="-1175511329" sampledSeconds="0.00" departed="0" arrived="0" entered="0" left="0" laneChangedFrom="0" laneChangedTo="0"/>
        <edge id="-1175511333" sampledSeconds="0.00" departed="0" arrived="0" entered="0" left="0" laneChangedFrom="0" laneChangedTo="0"/>
        <edge id="-1175511335" sampledSeconds="0.00" departed="0" arrived="0" entered="0" left="0" laneChangedFrom="0" laneChangedTo="0"/>
        <edge id="-118685369" sampledSeconds="24.84" traveltime="12.31" overlapTraveltime="12.99" density="0.06" laneDensity="0.06" occupancy="0.03" waitingTime="0.00" timeLoss="7.88" speed="8.89" speedRelative="0.64" departed="2" arrived="0" entered="0" left="2" laneChangedFrom="0" laneChangedTo="0"/>
        <edge id="-118685380" sampledSeconds="12.12" traveltime="12.04" overlapTraveltime="12.68" density="0.03" laneDensity="0.03" occupancy="0.01" waitingTime="0.00" timeLoss="4.40" speed="9.12" speedRelative="0.66" departed="1" arrived="0" entered="0" left="1" laneChangedFrom="0" laneChangedTo="0"/>
        <edge id="-118685461#0" sampledSeconds="19.19" traveltime="3.35" overlapTraveltime="3.93" density="0.15" laneDensity="0.15" occupancy="0.07" waitingTime="0.00" timeLoss="2.96" speed="10.46" speedRelative="0.75" departed="0" arrived="3" entered="5" left="2" laneChangedFrom="0" laneChangedTo="0"/>
        <edge id="-118685461#1" sampledSeconds="16.49" traveltime="2.73" overlapTraveltime="3.30" density="0.15" laneDensity="0.15" occupancy="0.06" waitingTime="0.00" timeLoss="2.78" speed="10.86" speedRelative="0.78" departed="0" arrived="0" entered="5" left="5" laneChangedFrom="0" laneChangedTo="0"/>
        <edge id="-118685461#2" sampledSeconds="27.69" traveltime="4.06" overlapTraveltime="4.85" density="0.25" laneDensity="0.25" occupancy="0.11" waitingTime="0.00" timeLoss="12.32" speed="7.26" speedRelative="0.52" departed="2" arrived="0" entered="4" left="6" laneChangedFrom="0" laneChangedTo="0"/>
        <edge id="-118685486#0" sampledSeconds="8.95" traveltime="3.54" overlapTraveltime="4.48" density="0.08" laneDensity="0.08" occupancy="0.03" waitingTime="0.00" timeLoss="1.80" speed="8.09" speedRelative="0.58" departed="0" arrived="0" entered="2" left="2" laneChangedFrom="0" laneChangedTo="0"/>
        <edge id="-118685486#1" sampledSeconds="9.90" traveltime="4.51" overlapTraveltime="4.95" density="0.06" laneDensity="0.06" occupancy="0.03" waitingTime="0.00" timeLoss="0.91" speed="10.92" speedRelative="0.79" departed="0" arrived="1" entered="2" left="1" laneChangedFrom="0" laneChangedTo="0"/>
        <edge id="-118685486#2" sampledSeconds="26.04" traveltime="3.64" overlapTraveltime="4.34" density="0.22" laneDensity="0.22" occupancy="0.09" waitingTime="0.00" timeLoss="7.87" speed="8.77" speedRelative="0.63" departed="0" arrived="0" entered="6" left="6" laneChangedFrom="0" laneChangedTo="0"/>
        <edge id="-118685486#3" sampledSeconds="22.25" traveltime="4.46" overlapTraveltime="4.88" density="0.21" laneDensity="0.21" occupancy="0.10" waitingTime="0.00" timeLoss="11.05" speed="7.10" speedRelative="0.51" departed="3" arrived="0" entered="2" left="5" laneChangedFrom="0" laneChangedTo="0"/>
        <edge id="-118685486#4" sampledSeconds="5.63" traveltime="4.63" overlapTraveltime="5.63" density="0.04" laneDensity="0.04" occupancy="0.02" waitingTime="0.00" timeLoss="1.74" speed="8.31" speedRelative="0.60" departed="0" arrived="0" entered="1" left="1" laneChangedFrom="0" laneChangedTo="0"/>
        <edge id="-118685501#0" sampledSeconds="13.16" traveltime="12.76" overlapTraveltime="13.75" density="0.03" laneDensity="0.03" occupancy="0.02" waitingTime="0.00" timeLoss="4.01" speed="8.71" speedRelative="0.63" departed="1" arrived="0" entered="0" left="1" laneChangedFrom="0" laneChangedTo="0"/>
        <edge id="-118685501#1" sampledSeconds="27.12" traveltime="5.09" overlapTraveltime="5.69" density="0.18" laneDensity="0.18" occupancy="0.08" waitingTime="0.00" timeLoss="10.01" speed="8.40" speedRelative="0.61" departed="2" arrived="3" entered="3" left="2" laneChangedFrom="0" laneChangedTo="0"/>
        <edge id="-118685501#2" sampledSeconds="8.85" traveltime="3.99" overlapTraveltime="4.60" density="0.07" laneDensity="0.07" occupancy="0.03" waitingTime="0.00" timeLoss="2.58" speed="8.61" speedRelative="0.62" departed="0" arrived="1" entered="2" left="1" laneChangedFrom="0" laneChangedTo="0"/>
        <edge id="-118685574#1" sampledSeconds="23.84" traveltime="7.70" overlapTraveltime="8.10" density="0.07" laneDensity="0.07" occupancy="0.03" waitingTime="0.00" timeLoss="4.04" speed="11.92" speedRelative="0.86" departed="0" arrived="3" entered="3" left="0" laneChangedFrom="0" laneChangedTo="0"/>
        <edge id="-118685574#2" sampledSeconds="4.76" traveltime="4.45" overlapTraveltime="5.22" density="0.02" laneDensity="0.02" occupancy="0.01" waitingTime="0.00" timeLoss="0.94" speed="11.14" speedRelative="0.80" departed="1" arrived="0" entered="0" left="1" laneChangedFrom="0" laneChangedTo="0"/>
        <edge id="-1189282089" sampledSeconds="16.55" traveltime="1.84" overlapTraveltime="2.76" density="0.27" laneDensity="0.27" occupancy="0.10" waitingTime="0.00" timeLoss="6.41" speed="8.04" speedRelative="0.36" departed="0" arrived="0" entered="6" left="6" laneChangedFrom="0" laneChangedTo="0"/>
        <edge id="-1279880656" sampledSeconds="154.77" traveltime="5.65" overlapTraveltime="5.96" density="0.46" laneDensity="0.46" occupancy="0.22" waitingTime="0.00" timeLoss="36.41" speed="16.42" speedRelative="0.74" departed="1" arrived="0" entered="25" left="26" laneChangedFrom="0" laneChangedTo="0"/>
        <edge id="-1298935482#0" sampledSeconds="9.60" traveltime="1.48" overlapTraveltime="1.92" density="0.17" laneDensity="0.17" occupancy="0.07" waitingTime="0.00" timeLoss="4.17" speed="10.65" speedRelative="0.48" departed="0" arrived="0" entered="5" left="5" laneChangedFrom="0" laneChangedTo="0"/>
        <edge id="-1298935482#1" sampledSeconds="7.05" traveltime="0.68" overlapTraveltime="1.18" density="0.34" laneDensity="0.34" occupancy="0.09" waitingTime="0.00" timeLoss="4.30" speed="9.19" speedRelative="0.41" departed="0" arrived="1" entered="6" left="5" laneChangedFrom="0" laneChangedTo="0"/>
        <edge id="-1298935483" sampledSeconds="0.00" departed="0" arrived="0" entered="0" left="0" laneChangedFrom="0" laneChangedTo="0"/>
        <edge id="-1332821635#0" sampledSeconds="6.40" traveltime="6.61" overlapTraveltime="7.30" density="0.05" laneDensity="0.05" occupancy="0.02" waitingTime="0.00" timeLoss="3.51" speed="5.69" speedRelative="0.41" departed="1" arrived="0" entered="0" left="1" laneChangedFrom="0" laneChangedTo="0"/>
        <edge id="-1332821635#1" sampledSeconds="9.30" traveltime="4.33" overlapTraveltime="4.75" density="0.06" laneDensity="0.06" occupancy="0.03" waitingTime="0.00" timeLoss="1.83" speed="10.38" speedRelative="0.75" departed="0" arrived="2" entered="2" left="0" laneChangedFrom="0" laneChangedTo="0"/>
        <edge id="-185741302#0" sampledSeconds="0.00" departed="0" arrived="0" entered="0" left="0" laneChangedFrom="0" laneChangedTo="0"/>
        <edge id="-185741302#1" sampledSeconds="0.00" departed="0" arrived="0" entered="0" left="0" laneChangedFrom="0" laneChangedTo="0"/>
        <edge id="-185741302#2" sampledSeconds="0.00" departed="0" arrived="0" entered="0" left="0" laneChangedFrom="0" laneChangedTo="0"/>
        <edge id="-185741302#3" sampledSeconds="0.00" departed="0" arrived="0" entered="0" left="0" laneChangedFrom="0" laneChangedTo="0"/>
        <edge id="-185741302#4" sampledSeconds="0.00" departed="0" arrived="0" entered="0" left="0" laneChangedFrom="0" laneChangedTo="0"/>
        <edge id="-185741302#5" sampledSeconds="0.00" departed="0" arrived="0" entered="0" left="0" laneChangedFrom="0" laneChangedTo="0"/>
        <edge id="-185741302#6" sampledSeconds="0.00" departed="0" arrived="0" entered="0" left="0" laneChangedFrom="0" laneChangedTo="0"/>
        <edge id="-185741302#7" sampledSeconds="0.00" departed="0" arrived="0" entered="0" left="0" laneChangedFrom="0" laneChangedTo="0"/>
        <edge id="-185741302#8" sampledSeconds="0.00" departed="0" arrived="0" entered="0" left="0" laneChangedFrom="0" laneChangedTo="0"/>
        <edge id="-185741302#9" sampledSeconds="0.00" departed="0" arrived="0" entered="0" left="0" laneChangedFrom="0" laneChangedTo="0"/>
        <edge id="-185742255#0" sampledSeconds="0.00" departed="0" arrived="0" entered="0" left="0" laneChangedFrom="0" laneChangedTo="0"/>
        <edge id="-185742255#1" sampledSeconds="0.00" departed="0" arrived="0" entered="0" left="0" laneChangedFrom="0" laneChangedTo="0"/>
        <edge id="-185742365#0" sampledSeconds="3.90" traveltime="1.06" overlapTraveltime="1.99" density="0.13" laneDensity="0.13" occupancy="0.04" waitingTime="0.00" timeLoss="1.60" speed="6.56" speedRelative="0.47" departed="0" arrived="1" entered="2" left="1" laneChangedFrom="0" laneChangedTo="0"/>
        <edge id="-185742365#1" sampledSeconds="9.41" traveltime="2.75" overlapTraveltime="3.14" density="0.07" laneDensity="0.07" occupancy="0.03" waitingTime="0.00" timeLoss="0.90" speed="13.16" speedRelative="0.95" departed="0" arrived="1" entered="3" left="2" laneChangedFrom="0" laneChangedTo="0"/>
        <edge id="-303384171#1" sampledSeconds="8.00" traveltime="6.68" overlapTraveltime="8.00" density="0.03" laneDensity="0.03" occupancy="0.01" waitingTime="0.00" timeLoss="1.55" speed="9.65" speedRelative="0.69" departed="0" arrived="0" entered="1" left="1" laneChangedFrom="0" laneChangedTo="0"/>
        <edge id="-303384171#2" sampledSeconds="13.88" traveltime="4.05" overlapTraveltime="4.88" density="0.14" laneDensity="0.14" occupancy="0.06" waitingTime="0.00" timeLoss="5.65" speed="6.86" speedRelative="0.49" departed="1" arrived="0" entered="2" left="3" laneChangedFrom="0" laneChangedTo="0"/>
        <edge id="-303384171#3" sampledSeconds="19.70" traveltime="4.49" overlapTraveltime="5.03" density="0.12" laneDensity="0.12" occupancy="0.05" waitingTime="0.00" timeLoss="5.63" speed="9.86" speedRelative="0.71" departed="0" arrived="2" entered="4" left="2" laneChangedFrom="0" laneChangedTo="0"/>
        <edge id="-303384171#4" sampledSeconds="15.21" traveltime="4.82" overlapTraveltime="5.45" density="0.12" laneDensity="0.12" occupancy="0.05" waitingTime="0.00" timeLoss="7.12" speed="7.43" speedRelative="0.53" departed="1" arrived="1" entered="2" left="2" laneChangedFrom="0" laneChangedTo="0"/>
        <edge id="-303384171#5" sampledSeconds="215.17" traveltime="4.68" overlapTraveltime="5.52" density="1.50" laneDensity="1.50" occupancy="0.64" waitingTime="0.00" timeLoss="64.75" speed="8.11" speedRelative="0.58" departed="0" arrived="0" entered="39" left="39" laneChangedFrom="0" laneChangedTo="0"/>
        <edge id="-303384173" sampledSeconds="25.96" traveltime="8.31" overlapTraveltime="9.08" density="0.11" laneDensity="0.11" occupancy="0.05" waitingTime="0.00" timeLoss="10.03" speed="8.07" speedRelative="0.58" departed="2" arrived="0" entered="1" left="3" laneChangedFrom="0" laneChangedTo="0"/>
        <edge id="-303384176#0" sampledSeconds="38.70" traveltime="9.32" overlapTraveltime="9.70" density="0.09" laneDensity="0.09" occupancy="0.04" waitingTime="0.00" timeLoss="1.47" speed="13.25" speedRelative="0.95" departed="0" arrived="4" entered="4" left="0" laneChangedFrom="0" laneChangedTo="0"/>
        <edge id="-303384176#1" sampledSeconds="20.79" traveltime="2.67" overlapTraveltime="3.12" density="0.22" laneDensity="0.22" occupancy="0.10" waitingTime="0.00" timeLoss="4.82" speed="10.07" speedRelative="0.72" departed="2" arrived="1" entered="5" left="6" laneChangedFrom="0" laneChangedTo="0"/>
        <edge id="-303384176#2" sampledSeconds="38.75" traveltime="4.44" overlapTraveltime="4.88" density="0.22" laneDensity="0.22" occupancy="0.10" waitingTime="0.00" timeLoss="6.92" speed="11.25" speedRelative="0.81" departed="0" arrived="2" entered="8" left="6" laneChangedFrom="0" laneChangedTo="0"/>
        <edge id="-344735755#0" sampledSeconds="3.89" traveltime="0.24" overlapTraveltime="0.93" density="0.44" laneDensity="0.44" occupancy="0.08" waitingTime="0.00" timeLoss="1.09" speed="8.06" speedRelative="0.58" departed="0" arrived="4" entered="5" left="1" laneChangedFrom="0" laneChangedTo="0"/>
        <edge id="-344735755#1" sampledSeconds="73.31" traveltime="14.34" overlapTraveltime="14.74" density="0.11" laneDensity="0.11" occupancy="0.06" waitingTime="0.00" timeLoss="6.32" speed="12.47" speedRelative="0.90" departed="1" arrived="0" entered="4" left="5" laneChangedFrom="0" laneChangedTo="0"/>
        <edge id="-344735755#2" sampledSeconds="63.27" traveltime="7.35" overlapTraveltime="7.91" density="0.20" laneDensity="0.20" occupancy="0.09" waitingTime="0.00" timeLoss="8.56" speed="11.61" speedRelative="0.84" departed="0" arrived="1" entered="8" left="7" laneChangedFrom="0" laneChangedTo="0"/>
        <edge id="-344735755#3" sampledSeconds="37.85" traveltime="12.09" overlapTraveltime="12.78" density="0.08" laneDensity="0.08" occupancy="0.04" waitingTime="0.00" timeLoss="8.53" speed="10.65" speedRelative="0.77" departed="1" arrived="0" entered="2" left="3" laneChangedFrom="0" laneChangedTo="0"/>
        <edge id="-344735755#4" sampledSeconds="9.94" traveltime="10.09" overlapTraveltime="10.44" density="0.03" laneDensity="0.03" occupancy="0.01" waitingTime="0.00" timeLoss="2.93" speed="10.22" speedRelative="0.74" departed="1" arrived="0" entered="0" left="1" laneChangedFrom="0" laneChangedTo="0"/>
        <edge id="-350625627#0" sampledSeconds="23.87" traveltime="5.46" overlapTraveltime="6.08" density="0.11" laneDensity="0.11" occupancy="0.05" waitingTime="0.00" timeLoss="3.22" speed="11.17" speedRelative="0.80" departed="0" arrived="2" entered="4" left="2" laneChangedFrom="0" laneChangedTo="0"/>
        <edge id="-350625627#1" sampledSeconds="25.63" traveltime="2.26" overlapTraveltime="2.99" density="0.37" laneDensity="0.37" occupancy="0.15" waitingTime="0.00" timeLoss="7.23" speed="8.08" speedRelative="0.58" departed="2" arrived="0" entered="7" left="9" laneChangedFrom="0" laneChangedTo="0"/>
        <edge id="-350625627#2" sampledSeconds="129.24" traveltime="11.37" overlapTraveltime="11.83" density="0.27" laneDensity="0.27" occupancy="0.13" waitingTime="0.00" timeLoss="18.97" speed="11.50" speedRelative="0.83" departed="2" arrived="2" entered="9" left="9" laneChangedFrom="0" laneChangedTo="0"/>
        <edge id="-350625627#3" sampledSeconds="480.86" traveltime="8.92" overlapTraveltime="9.81" density="1.51" laneDensity="1.51" occupancy="0.69" waitingTime="2.00" timeLoss="123.95" speed="9.52" speedRelative="0.69" departed="0" arrived="0" entered="49" left="49" laneChangedFrom="0" laneChangedTo="0"/>
        <edge id="-350625627#4" sampledSeconds="165.37" traveltime="15.86" overlapTraveltime="16.58" density="0.26" laneDensity="0.26" occupancy="0.12" waitingTime="0.00" timeLoss="32.15" speed="11.02" speedRelative="0.79" departed="1" arrived="1" entered="9" left="9" laneChangedFrom="0" laneChangedTo="0"/>
        <edge id="-350625971#0" sampledSeconds="4.41" traveltime="4.30" overlapTraveltime="4.79" density="0.03" laneDensity="0.03" occupancy="0.01" waitingTime="0.00" timeLoss="0.77" speed="10.02" speedRelative="0.72" departed="0" arrived="1" entered="1" left="0" laneChangedFrom="0" laneChangedTo="0"/>
        <edge id="-350625971#1" sampledSeconds="6.77" traveltime="3.20" overlapTraveltime="3.58" density="0.05" laneDensity="0.05" occupancy="0.02" waitingTime="0.00" timeLoss="1.52" speed="11.71" speedRelative="0.84" departed="0" arrived="2" entered="2" left="0" laneChangedFrom="0" laneChangedTo="0"/>
        <edge id="-372304670#0" sampledSeconds="227.63" traveltime="5.26" overlapTraveltime="6.17" density="1.18" laneDensity="1.18" occupancy="0.53" waitingTime="0.00" timeLoss="50.84" speed="9.47" speedRelative="0.68" departed="1" arrived="0" entered="36" left="37" laneChangedFrom="0" laneChangedTo="0"/>
        <edge id="-372304670#1" sampledSeconds="121.15" traveltime="1.84" overlapTraveltime="2.41" density="1.69" laneDensity="1.69" occupancy="0.68" waitingTime="0.00" timeLoss="23.21" speed="10.33" speedRelative="0.74" departed="4" arrived="1" entered="47" left="50" laneChangedFrom="0" laneChangedTo="0"/>
        <edge id="-372304670#2" sampledSeconds="213.88" traveltime="3.28" overlapTraveltime="3.75" density="1.43" laneDensity="1.43" occupancy="0.64" waitingTime="0.00" timeLoss="19.92" speed="12.37" speedRelative="0.89" departed="0" arrived="0" entered="57" left="57" laneChangedFrom="0" laneChangedTo="0"/>
        <edge id="-372304670#4" sampledSeconds="479.17" traveltime="7.32" overlapTraveltime="7.99" density="1.59" laneDensity="1.59" occupancy="0.74" waitingTime="0.00" timeLoss="99.63" speed="11.11" speedRelative="0.80" departed="1" arrived="0" entered="59" left="60" laneChangedFrom="0" laneChangedTo="0"/>
        <edge id="-372304670#5" sampledSeconds="276.17" traveltime="4.23" overlapTraveltime="4.60" density="1.80" laneDensity="1.80" occupancy="0.79" waitingTime="0.00" timeLoss="72.85" speed="10.34" speedRelative="0.74" departed="0" arrived="1" entered="60" left="59" laneChangedFrom="0" laneChangedTo="0"/>
        <edge id="-372304670#7" sampledSeconds="33.58" traveltime="7.56" overlapTraveltime="8.40" density="0.11" laneDensity="0.11" occupancy="0.05" waitingTime="0.00" timeLoss="5.99" speed="11.09" speedRelative="0.80" departed="0" arrived="0" entered="4" left="4" laneChangedFrom="0" laneChangedTo="0"/>
        <edge id="-372304670#8" sampledSeconds="19.90" traveltime="4.92" overlapTraveltime="5.28" density="0.09" laneDensity="0.09" occupancy="0.04" waitingTime="0.00" timeLoss="2.66" speed="12.47" speedRelative="0.90" departed="3" arrived="0" entered="1" left="4" laneChangedFrom="0" laneChangedTo="0"/>
        <edge id="-372304671#0" sampledSeconds="35.51" traveltime="0.87" overlapTraveltime="1.37" density="1.30" laneDensity="1.30" occupancy="0.39" waitingTime="0.00" timeLoss="20.36" speed="9.23" speedRelative="0.42" departed="0" arrived="0" entered="26" left="26" laneChangedFrom="0" laneChangedTo="0"/>
        <edge id="-372304671#1" sampledSeconds="38.36" traveltime="7.50" overlapTraveltime="7.76" density="0.13" laneDensity="0.13" occupancy="0.06" waitingTime="0.00" timeLoss="18.28" speed="11.37" speedRelative="0.51" departed="1" arrived="0" entered="4" left="5" laneChangedFrom="0" laneChangedTo="0"/>
        <edge id="-372422251#0" sampledSeconds="14.22" traveltime="2.37" overlapTraveltime="2.84" density="0.13" laneDensity="0.13" occupancy="0.06" waitingTime="0.00" timeLoss="0.94" speed="12.47" speedRelative="0.90" departed="0" arrived="0" entered="5" left="5" laneChangedFrom="0" laneChangedTo="0"/>
        <edge id="-372422251#2" sampledSeconds="29.50" traveltime="3.84" overlapTraveltime="4.21" density="0.18" laneDensity="0.18" occupancy="0.08" waitingTime="0.00" timeLoss="4.76" speed="11.73" speedRelative="0.84" departed="0" arrived="2" entered="7" left="5" laneChangedFrom="0" laneChangedTo="0"/>
        <edge id="-372422252" sampledSeconds="9.43" traveltime="0.04" overlapTraveltime="1.26" density="13.09" laneDensity="13.09" occupancy="0.25" waitingTime="0.00" timeLoss="3.31" speed="4.12" speedRelative="0.30" departed="0" arrived="1" entered="8" left="7" laneChangedFrom="0" laneChangedTo="0"/>
        <edge id="-372422255#0" sampledSeconds="28.64" traveltime="0.75" overlapTraveltime="1.54" density="1.80" laneDensity="1.80" occupancy="0.42" waitingTime="0.00" timeLoss="7.39" speed="6.12" speedRelative="0.44" departed="0" arrived="1" entered="19" left="18" laneChangedFrom="0" laneChangedTo="0"/>
        <edge id="-372422255#1" sampledSeconds="101.78" traveltime="4.43" overlapTraveltime="5.13" density="0.53" laneDensity="0.53" occupancy="0.24" waitingTime="0.00" timeLoss="19.09" speed="11.34" speedRelative="0.82" departed="1" arrived="1" entered="19" left="19" laneChangedFrom="0" laneChangedTo="0"/>
        <edge id="-372422255#2" sampledSeconds="172.69" traveltime="8.73" overlapTraveltime="9.11" density="0.45" laneDensity="0.45" occupancy="0.21" waitingTime="0.00" timeLoss="21.21" speed="12.29" speedRelative="0.89" departed="1" arrived="0" entered="18" left="19" laneChangedFrom="0" laneChangedTo="0"/>
        <edge id="-372422255#3" sampledSeconds="45.71" traveltime="1.30" overlapTraveltime="2.08" density="1.47" laneDensity="1.47" occupancy="0.47" waitingTime="0.00" timeLoss="16.26" speed="6.56" speedRelative="0.47" departed="0" arrived="0" entered="22" left="22" laneChangedFrom="0" laneChangedTo="0"/>
        <edge id="-656746652" sampledSeconds="0.00" departed="0" arrived="0" entered="0" left="0" laneChangedFrom="0" laneChangedTo="0"/>
        <edge id="-656746653#0" sampledSeconds="22.34" traveltime="4.67" overlapTraveltime="5.58" density="0.12" laneDensity="0.12" occupancy="0.05" waitingTime="0.00" timeLoss="2.65" speed="10.49" speedRelative="0.76" departed="0" arrived="0" entered="4" left="4" laneChangedFrom="0" laneChangedTo="0"/>
        <edge id="-656746653#1" sampledSeconds="26.84" traveltime="5.18" overlapTraveltime="5.57" density="0.14" laneDensity="0.14" occupancy="0.07" waitingTime="0.00" timeLoss="6.73" speed="10.19" speedRelative="0.73" departed="2" arrived="1" entered="3" left="4" laneChangedFrom="0" laneChangedTo="0"/>
        <edge id="-656746656#0" sampledSeconds="22.41" traveltime="3.68" overlapTraveltime="4.58" density="0.13" laneDensity="0.13" occupancy="0.06" waitingTime="0.00" timeLoss="4.14" speed="11.37" speedRelative="0.82" departed="0" arrived="3" entered="5" left="2" laneChangedFrom="0" laneChangedTo="0"/>
        <edge id="-656746656#1" sampledSeconds="43.18" traveltime="3.72" overlapTraveltime="4.32" density="0.31" laneDensity="0.31" occupancy="0.13" waitingTime="0.00" timeLoss="11.33" speed="10.08" speedRelative="0.73" departed="0" arrived="0" entered="10" left="10" laneChangedFrom="0" laneChangedTo="0"/>
        <edge id="-656746657" sampledSeconds="18.60" traveltime="4.33" overlapTraveltime="5.13" density="0.10" laneDensity="0.10" occupancy="0.05" waitingTime="0.00" timeLoss="2.57" speed="10.69" speedRelative="0.77" departed="4" arrived="0" entered="0" left="4" laneChangedFrom="0" laneChangedTo="0"/>
        <edge id="-657565144" sampledSeconds="13.42" traveltime="13.05" overlapTraveltime="13.42" density="0.02" laneDensity="0.02" occupancy="0.01" waitingTime="0.00" timeLoss="1.22" speed="12.56" speedRelative="0.90" departed="0" arrived="1" entered="1" left="0" laneChangedFrom="0" laneChangedTo="0"/>
        <edge id="-657565145#0" sampledSeconds="17.96" traveltime="5.21" overlapTraveltime="6.23" density="0.13" laneDensity="0.13" occupancy="0.06" waitingTime="0.00" timeLoss="6.71" speed="7.07" speedRelative="0.51" departed="1" arrived="0" entered="2" left="3" laneChangedFrom="0" laneChangedTo="0"/>
        <edge id="-657565145#1" sampledSeconds="57.29" traveltime="13.94" overlapTraveltime="14.43" density="0.10" laneDensity="0.10" occupancy="0.05" waitingTime="0.00" timeLoss="6.76" speed="11.61" speedRelative="0.84" departed="1" arrived="1" entered="3" left="3" laneChangedFrom="0" laneChangedTo="0"/>
        <edge id="-657565147#0" sampledSeconds="16.03" traveltime="4.64" overlapTraveltime="5.34" density="0.12" laneDensity="0.12" occupancy="0.05" waitingTime="0.00" timeLoss="4.91" speed="8.12" speedRelative="0.58" departed="0" arrived="0" entered="3" left="3" laneChangedFrom="0" laneChangedTo="0"/>
        <edge id="-657565147#1" sampledSeconds="6.97" traveltime="7.13" overlapTraveltime="7.85" density="0.05" laneDensity="0.05" occupancy="0.02" waitingTime="0.00" timeLoss="3.53" speed="5.79" speedRelative="0.42" departed="1" arrived="0" entered="0" left="1" laneChangedFrom="0" laneChangedTo="0"/>
        <edge id="-657565147#2" sampledSeconds="5.55" traveltime="4.78" overlapTraveltime="5.55" density="0.04" laneDensity="0.04" occupancy="0.02" waitingTime="0.00" timeLoss="1.08" speed="8.09" speedRelative="0.58" departed="0" arrived="0" entered="1" left="1" laneChangedFrom="0" laneChangedTo="0"/>
        <edge id="-657565150#0" sampledSeconds="20.01" traveltime="4.37" overlapTraveltime="5.16" density="0.15" laneDensity="0.15" occupancy="0.07" waitingTime="0.00" timeLoss="6.98" speed="7.96" speedRelative="0.57" departed="1" arrived="0" entered="3" left="4" laneChangedFrom="0" laneChangedTo="0"/>
        <edge id="-657565150#1" sampledSeconds="10.33" traveltime="10.13" overlapTraveltime="11.02" density="0.04" laneDensity="0.04" occupancy="0.02" waitingTime="0.00" timeLoss="3.82" speed="7.37" speedRelative="0.53" departed="1" arrived="0" entered="0" left="1" laneChangedFrom="0" laneChangedTo="0"/>
        <edge id="-657565151" sampledSeconds="51.32" traveltime="16.84" overlapTraveltime="17.41" density="0.08" laneDensity="0.08" occupancy="0.04" waitingTime="0.00" timeLoss="9.72" speed="10.40" speedRelative="0.75" departed="1" arrived="1" entered="2" left="2" laneChangedFrom="0" laneChangedTo="0"/>
        <edge id="-657565153" sampledSeconds="98.71" traveltime="9.50" overlapTraveltime="9.91" density="0.24" laneDensity="0.24" occupancy="0.11" waitingTime="0.00" timeLoss="13.92" speed="12.27" speedRelative="0.88" departed="1" arrived="0" entered="9" left="10" laneChangedFrom="0" laneChangedTo="0"/>
        <edge id="-657565154" sampledSeconds="7.08" traveltime="6.71" overlapTraveltime="7.08" density="0.03" laneDensity="0.03" occupancy="0.01" waitingTime="0.00" timeLoss="1.33" speed="11.47" speedRelative="0.83" departed="0" arrived="1" entered="1" left="0" laneChangedFrom="0" laneChangedTo="0"/>
        <edge id="-657565156#0" sampledSeconds="106.69" traveltime="10.98" overlapTraveltime="11.91" density="0.24" laneDensity="0.24" occupancy="0.12" waitingTime="0.00" timeLoss="19.98" speed="10.64" speedRelative="0.77" departed="1" arrived="0" entered="8" left="9" laneChangedFrom="0" laneChangedTo="0"/>
        <edge id="-657565156#1" sampledSeconds="19.11" traveltime="2.80" overlapTraveltime="3.19" density="0.15" laneDensity="0.15" occupancy="0.06" waitingTime="0.00" timeLoss="0.89" speed="12.89" speedRelative="0.93" departed="0" arrived="0" entered="6" left="6" laneChangedFrom="0" laneChangedTo="0"/>
        <edge id="-657565156#2" sampledSeconds="26.83" traveltime="4.17" overlapTraveltime="4.55" density="0.17" laneDensity="0.17" occupancy="0.08" waitingTime="0.00" timeLoss="5.70" speed="10.65" speedRelative="0.77" departed="1" arrived="0" entered="5" left="6" laneChangedFrom="0" laneChangedTo="0"/>
        <edge id="-657565156#3" sampledSeconds="19.74" traveltime="2.90" overlapTraveltime="3.32" density="0.19" laneDensity="0.19" occupancy="0.08" waitingTime="0.00" timeLoss="4.06" speed="10.03" speedRelative="0.72" departed="0" arrived="4" entered="6" left="2" laneChangedFrom="0" laneChangedTo="0"/>
        <edge id="-657565158" sampledSeconds="8.48" traveltime="7.77" overlapTraveltime="8.48" density="0.03" laneDensity="0.03" occupancy="0.01" waitingTime="0.00" timeLoss="2.76" speed="9.61" speedRelative="0.69" departed="0" arrived="0" entered="1" left="1" laneChangedFrom="0" laneChangedTo="0"/>
        <edge id="-657580974#0" sampledSeconds="23.80" traveltime="11.71" overlapTraveltime="12.54" density="0.07" laneDensity="0.07" occupancy="0.03" waitingTime="0.00" timeLoss="8.68" speed="7.98" speedRelative="0.57" departed="2" arrived="0" entered="0" left="2" laneChangedFrom="0" laneChangedTo="0"/>
        <edge id="-657580974#1" sampledSeconds="15.12" traveltime="3.55" overlapTraveltime="4.06" density="0.17" laneDensity="0.17" occupancy="0.07" waitingTime="0.00" timeLoss="6.95" speed="7.48" speedRelative="0.54" departed="1" arrived="3" entered="3" left="1" laneChangedFrom="0" laneChangedTo="0"/>