<?xml version="1.0" encoding="UTF-8"?>

<!-- generated on 2025-10-22T19:29:07.177917+07:00 by Eclipse SUMO sumo v1_24_0+1412-284a4f7aa5c
<sumoConfiguration xmlns:xsi="http://www.w3.org/2001/XMLSchema-instance" xsi:noNamespaceSchemaLocation="http://sumo.dlr.de/xsd/sumoConfiguration.xsd">

    <input>
        <net-file value="osm.net.xml.gz"/>
        <route-files value="osm.passenger.trips.xml"/>
        <additional-files value="osm.poly.xml.gz,output.add.xml"/>
    </input>

    <output>
        <fcd-output value="trace.xml"/>
        <tripinfo-output value="tripinfos.xml"/>
        <statistic-output value="stats.xml"/>
    </output>

    <processing>
        <ignore-route-errors value="true"/>
        <tls.actuated.jam-threshold value="30"/>
    </processing>

    <routing>
        <device.rerouting.adaptation-steps value="18"/>
        <device.rerouting.adaptation-interval value="10"/>
    </routing>

    <report>
        <verbose value="true"/>
        <duration-log.statistics value="true"/>
        <no-step-log value="true"/>
    </report>

    <gui_only>
        <gui-settings-file value="osm.view.xml"/>
    </gui_only>

</sumoConfiguration>
-->

<tripinfos xmlns:xsi="http://www.w3.org/2001/XMLSchema-instance" xsi:noNamespaceSchemaLocation="http://sumo.dlr.de/xsd/tripinfo_file.xsd">
    <tripinfo id="veh0" depart="0.00" departLane="656746656#1_0" departPos="5.10" departSpeed="0.00" departDelay="0.00" arrival="68.00" arrivalLane="-118685501#1_0" arrivalPos="42.84" arrivalSpeed="14.22" duration="68.00" routeLength="843.81" waitingTime="0.00" waitingCount="0" stopTime="0.00" timeLoss="17.11" rerouteNo="1" devices="tripinfo_veh0 routing_veh0 fcd_veh0" vType="veh_passenger" speedFactor="1.06" vaporized=""/>
    <tripinfo id="veh3" depart="41.00" departLane="118685471_0" departPos="5.10" departSpeed="0.00" departDelay="0.97" arrival="113.00" arrivalLane="-118685574#1_0" arrivalPos="91.53" arrivalSpeed="14.03" duration="72.00" routeLength="964.19" waitingTime="0.00" waitingCount="0" stopTime="0.00" timeLoss="20.58" rerouteNo="1" devices="tripinfo_veh3 routing_veh3 fcd_veh3" vType="veh_passenger" speedFactor="1.08" vaporized=""/>
    <tripinfo id="veh2" depart="27.00" departLane="699674199#0_0" departPos="5.10" departSpeed="0.00" departDelay="0.31" arrival="120.00" arrivalLane="-303384176#0_0" arrivalPos="123.42" arrivalSpeed="13.14" duration="93.00" routeLength="1057.23" waitingTime="0.00" waitingCount="0" stopTime="0.00" timeLoss="28.26" rerouteNo="1" devices="tripinfo_veh2 routing_veh2 fcd_veh2" vType="veh_passenger" speedFactor="1.01" vaporized=""/>
    <tripinfo id="veh4" depart="54.00" departLane="-658178872#0_0" departPos="5.10" departSpeed="0.00" departDelay="0.63" arrival="121.00" arrivalLane="350625627#3_0" arrivalPos="88.40" arrivalSpeed="13.24" duration="67.00" routeLength="856.99" waitingTime="0.00" waitingCount="0" stopTime="0.00" timeLoss="16.24" rerouteNo="1" devices="tripinfo_veh4 routing_veh4 fcd_veh4" vType="veh_passenger" speedFactor="1.03" vaporized=""/>
    <tripinfo id="veh1" depart="14.00" departLane="-676191113#3_0" departPos="0.20" departSpeed="11.32" departDelay="0.66" arrival="137.00" arrivalLane="-658178872#0_0" arrivalPos="77.98" arrivalSpeed="13.03" duration="123.00" routeLength="1420.83" waitingTime="0.00" waitingCount="0" stopTime="0.00" timeLoss="19.92" rerouteNo="1" devices="tripinfo_veh1 routing_veh1 fcd_veh1" vType="veh_passenger" speedFactor="0.94" vaporized=""/>
    <tripinfo id="veh7" depart="94.00" departLane="-828030414#1_0" departPos="5.10" departSpeed="12.31" departDelay="0.59" arrival="155.00" arrivalLane="-372422255#1_0" arrivalPos="53.20" arrivalSpeed="11.05" duration="61.00" routeLength="683.72" waitingTime="0.00" waitingCount="0" stopTime="0.00" timeLoss="4.73" rerouteNo="1" devices="tripinfo_veh7 routing_veh7 fcd_veh7" vType="veh_passenger" speedFactor="0.89" vaporized=""/>
    <tripinfo id="veh8" depart="107.00" departLane="-350625627#2_0" departPos="5.10" departSpeed="0.00" departDelay="0.25" arrival="167.00" arrivalLane="-344735755#0_0" arrivalPos="2.47" arrivalSpeed="12.70" duration="60.00" routeLength="631.58" waitingTime="0.00" waitingCount="0" stopTime="0.00" timeLoss="10.05" rerouteNo="1" devices="tripinfo_veh8 routing_veh8 fcd_veh8" vType="veh_passenger" speedFactor="0.94" vaporized=""/>
    <tripinfo id="veh6" depart="81.00" departLane="693810751#0_0" departPos="5.10" departSpeed="0.54" departDelay="0.94" arrival="169.00" arrivalLane="-118685461#0_0" arrivalPos="36.10" arrivalSpeed="13.64" duration="88.00" routeLength="784.37" waitingTime="32.00" waitingCount="1" stopTime="0.00" timeLoss="43.41" rerouteNo="1" devices="tripinfo_veh6 routing_veh6 fcd_veh6" vType="veh_passenger" speedFactor="1.05" vaporized=""/>
    <tripinfo id="veh5" depart="67.00" departLane="-118685501#1_0" departPos="5.10" departSpeed="0.00" departDelay="0.28" arrival="184.00" arrivalLane="-657565151_0" arrivalPos="176.08" arrivalSpeed="11.16" duration="117.00" routeLength="1053.40" waitingTime="0.00" waitingCount="0" stopTime="0.00" timeLoss="22.79" rerouteNo="1" devices="tripinfo_veh5 routing_veh5 fcd_veh5" vType="veh_passenger" speedFactor="0.83" vaporized=""/>
    <tripinfo id="veh11" depart="147.00" departLane="693811293#1_2" departPos="5.10" departSpeed="0.00" departDelay="0.22" arrival="192.00" arrivalLane="656746653#1_0" arrivalPos="51.77" arrivalSpeed="13.10" duration="45.00" routeLength="567.19" waitingTime="0.00" waitingCount="0" stopTime="0.00" timeLoss="11.64" rerouteNo="1" devices="tripinfo_veh11 routing_veh11 fcd_veh11" vType="veh_passenger" speedFactor="1.03" vaporized=""/>
    <tripinfo id="veh12" depart="161.00" departLane="-658193950#3_0" departPos="5.10" departSpeed="0.00" departDelay="0.88" arrival="226.00" arrivalLane="-694532578#0_0" arrivalPos="68.38" arrivalSpeed="20.87" duration="65.00" routeLength="665.97" waitingTime="0.00" waitingCount="0" stopTime="0.00" timeLoss="19.91" rerouteNo="1" devices="tripinfo_veh12 routing_veh12 fcd_veh12" vType="veh_passenger" speedFactor="1.05" vaporized=""/>
    <tripinfo id="veh9" depart="121.00" departLane="-968341217_0" departPos="5.10" departSpeed="0.00" departDelay="0.91" arrival="244.00" arrivalLane="372310069#0_0" arrivalPos="24.24" arrivalSpeed="13.83" duration="123.00" routeLength="1201.62" waitingTime="0.00" waitingCount="0" stopTime="0.00" timeLoss="18.54" rerouteNo="1" devices="tripinfo_veh9 routing_veh9 fcd_veh9" vType="veh_passenger" speedFactor="0.86" vaporized=""/>
    <tripinfo id="veh10" depart="134.00" departLane="693810751#0_0" departPos="5.10" departSpeed="0.54" departDelay="0.56" arrival="250.00" arrivalLane="657565156#3_0" arrivalPos="28.12" arrivalSpeed="14.81" duration="116.00" routeLength="1060.05" waitingTime="30.00" waitingCount="1" stopTime="0.00" timeLoss="51.52" rerouteNo="1" devices="tripinfo_veh10 routing_veh10 fcd_veh10" vType="veh_passenger" speedFactor="1.09" vaporized=""/>
    <tripinfo id="veh14" depart="187.00" departLane="657565147#0_0" departPos="5.10" departSpeed="0.00" departDelay="0.19" arrival="258.00" arrivalLane="657565150#1_0" arrivalPos="76.23" arrivalSpeed="13.69" duration="71.00" routeLength="690.11" waitingTime="0.00" waitingCount="0" stopTime="0.00" timeLoss="18.72" rerouteNo="1" devices="tripinfo_veh14 routing_veh14 fcd_veh14" vType="veh_passenger" speedFactor="0.99" vaporized=""/>
    <tripinfo id="veh15" depart="201.00" departLane="-656746657_0" departPos="5.10" departSpeed="12.87" departDelay="0.85" arrival="266.00" arrivalLane="693810749#1-AddedOffRampEdge_0" arrivalPos="94.21" arrivalSpeed="14.16" duration="65.00" routeLength="742.72" waitingTime="0.00" waitingCount="0" stopTime="0.00" timeLoss="11.03" rerouteNo="1" devices="tripinfo_veh15 routing_veh15 fcd_veh15" vType="veh_passenger" speedFactor="0.93" vaporized=""/>
    <tripinfo id="veh13" depart="174.00" departLane="-676191113#3_0" departPos="0.20" departSpeed="13.54" departDelay="0.53" arrival="273.00" arrivalLane="699674199#1_0" arrivalPos="21.21" arrivalSpeed="11.53" duration="99.00" routeLength="1297.78" waitingTime="0.00" waitingCount="0" stopTime="0.00" timeLoss="20.18" rerouteNo="1" devices="tripinfo_veh13 routing_veh13 fcd_veh13" vType="veh_passenger" speedFactor="1.12" vaporized=""/>
    <tripinfo id="veh17" depart="227.00" departLane="350625627#2_0" departPos="5.10" departSpeed="0.00" departDelay="0.16" arrival="294.00" arrivalLane="676191113#3_0" arrivalPos="0.20" arrivalSpeed="9.92" duration="67.00" routeLength="701.02" waitingTime="0.00" waitingCount="0" stopTime="0.00" timeLoss="11.84" rerouteNo="1" devices="tripinfo_veh17 routing_veh17 fcd_veh17" vType="veh_passenger" speedFactor="0.94" vaporized=""/>
    <tripinfo id="veh18" depart="241.00" departLane="-658193950#3_0" departPos="5.10" departSpeed="0.00" departDelay="0.81" arrival="322.00" arrivalLane="-118685574#1_0" arrivalPos="91.53" arrivalSpeed="12.15" duration="81.00" routeLength="798.17" waitingTime="0.00" waitingCount="0" stopTime="0.00" timeLoss="20.83" rerouteNo="1" devices="tripinfo_veh18 routing_veh18 fcd_veh18" vType="veh_passenger" speedFactor="0.94" vaporized=""/>
    <tripinfo id="veh19" depart="254.00" departLane="-694532578#1_0" departPos="5.10" departSpeed="0.00" departDelay="0.47" arrival="322.00" arrivalLane="-675974310#1_0" arrivalPos="93.25" arrivalSpeed="15.42" duration="68.00" routeLength="885.25" waitingTime="0.00" waitingCount="0" stopTime="0.00" timeLoss="20.78" rerouteNo="1" devices="tripinfo_veh19 routing_veh19 fcd_veh19" vType="veh_passenger" speedFactor="1.16" vaporized=""/>
    <tripinfo id="veh16" depart="214.00" departLane="896437702_0" departPos="5.10" departSpeed="10.46" departDelay="0.50" arrival="326.00" arrivalLane="658193950#4_0" arrivalPos="38.76" arrivalSpeed="12.16" duration="112.00" routeLength="1179.58" waitingTime="0.00" waitingCount="0" stopTime="0.00" timeLoss="21.72" rerouteNo="1" devices="tripinfo_veh16 routing_veh16 fcd_veh16" vType="veh_passenger" speedFactor="0.88" vaporized=""/>
    <tripinfo id="veh21" depart="281.00" departLane="694532578#0_0" departPos="5.10" departSpeed="0.00" departDelay="0.78" arrival="373.00" arrivalLane="-828030413_0" arrivalPos="81.03" arrivalSpeed="13.48" duration="92.00" routeLength="973.25" waitingTime="0.00" waitingCount="0" stopTime="0.00" timeLoss="22.33" rerouteNo="1" devices="tripinfo_veh21 routing_veh21 fcd_veh21" vType="veh_passenger" speedFactor="1.01" vaporized=""/>
    <tripinfo id="veh20" depart="267.00" departLane="-657580974#0_0" departPos="5.10" departSpeed="0.00" departDelay="0.13" arrival="389.00" arrivalLane="828030412_0" arrivalPos="113.54" arrivalSpeed="12.87" duration="122.00" routeLength="1431.84" waitingTime="0.00" waitingCount="0" stopTime="0.00" timeLoss="23.42" rerouteNo="1" devices="tripinfo_veh20 routing_veh20 fcd_veh20" vType="veh_passenger" speedFactor="1.02" vaporized=""/>
    <tripinfo id="veh23" depart="307.00" departLane="828030413_0" departPos="5.10" departSpeed="12.36" departDelay="0.10" arrival="405.00" arrivalLane="1279880656_0" arrivalPos="92.95" arrivalSpeed="10.32" duration="98.00" routeLength="1042.03" waitingTime="0.00" waitingCount="0" stopTime="0.00" timeLoss="19.59" rerouteNo="1" devices="tripinfo_veh23 routing_veh23 fcd_veh23" vType="veh_passenger" speedFactor="0.89" vaporized=""/>
    <tripinfo id="veh24" depart="321.00" departLane="-676191113#3_0" departPos="0.20" departSpeed="9.96" departDelay="0.75" arrival="419.00" arrivalLane="-672374436_0" arrivalPos="194.99" arrivalSpeed="17.44" duration="98.00" routeLength="1086.87" waitingTime="0.00" waitingCount="0" stopTime="0.00" timeLoss="15.30" rerouteNo="1" devices="tripinfo_veh24 routing_veh24 fcd_veh24" vType="veh_passenger" speedFactor="0.83" vaporized=""/>
    <tripinfo id="veh28" depart="374.00" departLane="-350625627#1_0" departPos="5.10" departSpeed="0.00" departDelay="0.38" arrival="426.00" arrivalLane="-1298935482#1_0" arrivalPos="5.81" arrivalSpeed="9.86" duration="52.00" routeLength="604.51" waitingTime="0.00" waitingCount="0" stopTime="0.00" timeLoss="17.41" rerouteNo="1" devices="tripinfo_veh28 routing_veh28 fcd_veh28" vType="veh_passenger" speedFactor="1.13" vaporized=""/>
    <tripinfo id="veh26" depart="347.00" departLane="118685380_0" departPos="5.10" departSpeed="0.00" departDelay="0.07" arrival="427.00" arrivalLane="-657580974#1_0" arrivalPos="25.34" arrivalSpeed="10.62" duration="80.00" routeLength="717.54" waitingTime="0.00" waitingCount="0" stopTime="0.00" timeLoss="20.88" rerouteNo="1" devices="tripinfo_veh26 routing_veh26 fcd_veh26" vType="veh_passenger" speedFactor="0.92" vaporized=""/>
    <tripinfo id="veh22" depart="294.00" departLane="657565150#0_0" departPos="5.10" departSpeed="0.00" departDelay="0.44" arrival="432.00" arrivalLane="-981188047#0_0" arrivalPos="27.23" arrivalSpeed="13.14" duration="138.00" routeLength="1497.90" waitingTime="0.00" waitingCount="0" stopTime="0.00" timeLoss="29.02" rerouteNo="1" devices="tripinfo_veh22 routing_veh22 fcd_veh22" vType="veh_passenger" speedFactor="0.97" vaporized=""/>
    <tripinfo id="veh25" depart="334.00" departLane="350625627#4_0" departPos="5.10" departSpeed="0.00" departDelay="0.41" arrival="449.00" arrivalLane="-675974310#1_0" arrivalPos="93.25" arrivalSpeed="11.49" duration="115.00" routeLength="1175.12" waitingTime="0.00" waitingCount="0" stopTime="0.00" timeLoss="24.24" rerouteNo="1" devices="tripinfo_veh25 routing_veh25 fcd_veh25" vType="veh_passenger" speedFactor="0.87" vaporized=""/>
    <tripinfo id="veh30" depart="401.00" departLane="968341217_0" departPos="5.10" departSpeed="0.00" departDelay="0.69" arrival="465.00" arrivalLane="372304670#8_0" arrivalPos="60.86" arrivalSpeed="16.13" duration="64.00" routeLength="777.98" waitingTime="0.00" waitingCount="0" stopTime="0.00" timeLoss="15.05" rerouteNo="1" devices="tripinfo_veh30 routing_veh30 fcd_veh30" vType="veh_passenger" speedFactor="1.18" vaporized=""/>
    <tripinfo id="veh27" depart="361.00" departLane="968341217_0" departPos="5.10" departSpeed="0.00" departDelay="0.72" arrival="467.00" arrivalLane="350625971#0_0" arrivalPos="43.00" arrivalSpeed="11.99" duration="106.00" routeLength="1178.66" waitingTime="0.00" waitingCount="0" stopTime="0.00" timeLoss="21.52" rerouteNo="1" devices="tripinfo_veh27 routing_veh27 fcd_veh27" vType="veh_passenger" speedFactor="0.95" vaporized=""/>
    <tripinfo id="veh32" depart="427.00" departLane="-118685461#2_0" departPos="5.10" departSpeed="0.00" departDelay="0.00" arrival="471.00" arrivalLane="693810749#1_2" arrivalPos="128.16" arrivalSpeed="15.90" duration="44.00" routeLength="545.73" waitingTime="0.00" waitingCount="0" stopTime="0.00" timeLoss="11.52" rerouteNo="1" devices="tripinfo_veh32 routing_veh32 fcd_veh32" vType="veh_passenger" speedFactor="1.01" vaporized=""/>
    <tripinfo id="veh33" depart="441.00" departLane="658178872#0_0" departPos="5.10" departSpeed="0.00" departDelay="0.66" arrival="502.00" arrivalLane="372304670#8_0" arrivalPos="60.86" arrivalSpeed="15.05" duration="61.00" routeLength="676.42" waitingTime="2.00" waitingCount="1" stopTime="0.00" timeLoss="17.96" rerouteNo="1" devices="tripinfo_veh33 routing_veh33 fcd_veh33" vType="veh_passenger" speedFactor="1.17" vaporized=""/>
    <tripinfo id="veh29" depart="387.00" departLane="-303384171#2_0" departPos="5.10" departSpeed="0.00" departDelay="0.03" arrival="507.00" arrivalLane="-896437702_0" arrivalPos="23.35" arrivalSpeed="11.66" duration="120.00" routeLength="1303.38" waitingTime="0.00" waitingCount="0" stopTime="0.00" timeLoss="25.91" rerouteNo="1" devices="tripinfo_veh29 routing_veh29 fcd_veh29" vType="veh_passenger" speedFactor="0.93" vaporized=""/>
    <tripinfo id="veh34" depart="454.00" departLane="-372304670#4_0" departPos="5.10" departSpeed="0.00" departDelay="0.32" arrival="526.00" arrivalLane="118685486#2_0" arrivalPos="33.08" arrivalSpeed="12.51" duration="72.00" routeLength="944.88" waitingTime="0.00" waitingCount="0" stopTime="0.00" timeLoss="17.32" rerouteNo="1" devices="tripinfo_veh34 routing_veh34 fcd_veh34" vType="veh_passenger" speedFactor="0.99" vaporized=""/>
    <tripinfo id="veh31" depart="414.00" departLane="896418615_0" departPos="5.10" departSpeed="16.03" departDelay="0.35" arrival="544.00" arrivalLane="693811300_2" arrivalPos="55.80" arrivalSpeed="19.00" duration="130.00" routeLength="1791.42" waitingTime="0.00" waitingCount="0" stopTime="0.00" timeLoss="21.72" rerouteNo="1" devices="tripinfo_veh31 routing_veh31 fcd_veh31" vType="veh_passenger" speedFactor="1.15" vaporized=""/>
    <tripinfo id="veh36" depart="482.00" departLane="694532578#0_0" departPos="5.10" departSpeed="0.00" departDelay="1.63" arrival="558.00" arrivalLane="-675974310#1_0" arrivalPos="93.25" arrivalSpeed="13.14" duration="76.00" routeLength="939.18" waitingTime="0.00" waitingCount="0" stopTime="0.00" timeLoss="17.91" rerouteNo="1" devices="tripinfo_veh36 routing_veh36 fcd_veh36" vType="veh_passenger" speedFactor="0.97" vaporized=""/>
    <tripinfo id="veh37" depart="494.00" departLane="303384171#0_0" departPos="5.10" departSpeed="0.00" departDelay="0.29" arrival="568.00" arrivalLane="-656746656#0_0" arrivalPos="47.05" arrivalSpeed="15.34" duration="74.00" routeLength="996.78" waitingTime="0.00" waitingCount="0" stopTime="0.00" timeLoss="20.71" rerouteNo="1" devices="tripinfo_veh37 routing_veh37 fcd_veh37" vType="veh_passenger" speedFactor="1.18" vaporized=""/>
    <tripinfo id="veh35" depart="468.00" departLane="118685574#0_0" departPos="5.10" departSpeed="14.16" departDelay="0.97" arrival="597.00" arrivalLane="828030414#1_0" arrivalPos="11.49" arrivalSpeed="13.40" duration="129.00" routeLength="1708.59" waitingTime="0.00" waitingCount="0" stopTime="0.00" timeLoss="20.60" rerouteNo="1" devices="tripinfo_veh35 routing_veh35 fcd_veh35" vType="veh_passenger" speedFactor="1.02" vaporized=""/>
    <tripinfo id="veh44" depart="588.00" departLane="-344735755#4_0" departPos="5.10" departSpeed="0.00" departDelay="0.88" arrival="634.00" arrivalLane="303384176#1_0" arrivalPos="26.37" arrivalSpeed="11.80" duration="46.00" routeLength="476.09" waitingTime="0.00" waitingCount="0" stopTime="0.00" timeLoss="11.98" rerouteNo="1" devices="tripinfo_veh44 routing_veh44 fcd_veh44" vType="veh_passenger" speedFactor="1.04" vaporized=""/>
    <tripinfo id="veh40" depart="538.00" departLane="-118685486#3_0" departPos="5.10" departSpeed="0.00" departDelay="4.25" arrival="636.00" arrivalLane="699674198_0" arrivalPos="48.57" arrivalSpeed="13.59" duration="98.00" routeLength="1106.65" waitingTime="0.00" waitingCount="0" stopTime="0.00" timeLoss="29.44" rerouteNo="1" devices="tripinfo_veh40 routing_veh40 fcd_veh40" vType="veh_passenger" speedFactor="1.03" vaporized=""/>
    <tripinfo id="veh39" depart="521.00" departLane="-118685369_0" departPos="5.10" departSpeed="0.00" departDelay="0.60" arrival="639.00" arrivalLane="-836974600#1_0" arrivalPos="49.99" arrivalSpeed="11.63" duration="118.00" routeLength="1115.04" waitingTime="0.00" waitingCount="0" stopTime="0.00" timeLoss="26.73" rerouteNo="1" devices="tripinfo_veh39 routing_veh39 fcd_veh39" vType="veh_passenger" speedFactor="0.90" vaporized=""/>
    <tripinfo id="veh45" depart="601.00" departLane="1307454892_0" departPos="5.10" departSpeed="24.18" departDelay="0.54" arrival="643.00" arrivalLane="372310069#0_0" arrivalPos="24.24" arrivalSpeed="17.48" duration="42.00" routeLength="784.08" waitingTime="0.00" waitingCount="0" stopTime="0.00" timeLoss="5.46" rerouteNo="1" devices="tripinfo_veh45 routing_veh45 fcd_veh45" vType="veh_passenger" speedFactor="1.09" vaporized=""/>
    <tripinfo id="veh41" depart="548.00" departLane="694532578#1_0" departPos="5.10" departSpeed="0.00" departDelay="0.91" arrival="645.00" arrivalLane="693811299#1_2" arrivalPos="4.62" arrivalSpeed="15.76" duration="97.00" routeLength="707.16" waitingTime="37.00" waitingCount="1" stopTime="0.00" timeLoss="55.33" rerouteNo="1" devices="tripinfo_veh41 routing_veh41 fcd_veh41" vType="veh_passenger" speedFactor="0.96" vaporized=""/>
    <tripinfo id="veh38" depart="508.00" departLane="828030413_0" departPos="5.10" departSpeed="15.31" departDelay="0.94" arrival="652.00" arrivalLane="693811300_2" arrivalPos="55.80" arrivalSpeed="17.44" duration="144.00" routeLength="1383.11" waitingTime="37.00" waitingCount="1" stopTime="0.00" timeLoss="59.00" rerouteNo="1" devices="tripinfo_veh38 routing_veh38 fcd_veh38" vType="veh_passenger" speedFactor="1.10" vaporized=""/>
    <tripinfo id="veh42" depart="561.00" departLane="-694532577#2_0" departPos="5.10" departSpeed="15.17" departDelay="0.57" arrival="658.00" arrivalLane="-185742365#0_0" arrivalPos="8.04" arrivalSpeed="14.37" duration="97.00" routeLength="1309.38" waitingTime="0.00" waitingCount="0" stopTime="0.00" timeLoss="16.67" rerouteNo="1" devices="tripinfo_veh42 routing_veh42 fcd_veh42" vType="veh_passenger" speedFactor="1.09" vaporized=""/>
    <tripinfo id="veh43" depart="574.00" departLane="694532578#1_0" departPos="5.10" departSpeed="0.00" departDelay="0.22" arrival="686.00" arrivalLane="828030414#1_0" arrivalPos="11.49" arrivalSpeed="13.13" duration="112.00" routeLength="1488.47" waitingTime="0.00" waitingCount="0" stopTime="0.00" timeLoss="17.77" rerouteNo="1" devices="tripinfo_veh43 routing_veh43 fcd_veh43" vType="veh_passenger" speedFactor="1.04" vaporized=""/>
    <tripinfo id="veh48" depart="641.00" departLane="344735755#0_0" departPos="2.47" departSpeed="12.18" departDelay="0.51" arrival="707.00" arrivalLane="693810749#1-AddedOffRampEdge_4" arrivalPos="94.21" arrivalSpeed="14.16" duration="66.00" routeLength="802.28" waitingTime="0.00" waitingCount="0" stopTime="0.00" timeLoss="8.61" rerouteNo="1" devices="tripinfo_veh48 routing_veh48 fcd_veh48" vType="veh_passenger" speedFactor="0.88" vaporized=""/>
    <tripinfo id="veh46" depart="614.00" departLane="-676191113#3_0" departPos="0.20" departSpeed="12.03" departDelay="0.19" arrival="731.00" arrivalLane="693811300_2" arrivalPos="55.80" arrivalSpeed="15.67" duration="117.00" routeLength="1217.02" waitingTime="14.00" waitingCount="1" stopTime="0.00" timeLoss="36.68" rerouteNo="1" devices="tripinfo_veh46 routing_veh46 fcd_veh46" vType="veh_passenger" speedFactor="1.00" vaporized=""/>
    <tripinfo id="veh51" depart="681.00" departLane="-372304670#8_0" departPos="5.10" departSpeed="16.24" departDelay="0.47" arrival="734.00" arrivalLane="-658178872#0_0" arrivalPos="77.98" arrivalSpeed="15.88" duration="53.00" routeLength="674.33" waitingTime="0.00" waitingCount="0" stopTime="0.00" timeLoss="10.81" rerouteNo="1" devices="tripinfo_veh51 routing_veh51 fcd_veh51" vType="veh_passenger" speedFactor="1.17" vaporized=""/>
    <tripinfo id="veh47" depart="628.00" departLane="118685471_0" departPos="5.10" departSpeed="0.00" departDelay="0.85" arrival="737.00" arrivalLane="-657565156#3_0" arrivalPos="28.26" arrivalSpeed="12.14" duration="109.00" routeLength="1168.09" waitingTime="0.00" waitingCount="0" stopTime="0.00" timeLoss="22.45" rerouteNo="1" devices="tripinfo_veh47 routing_veh47 fcd_veh47" vType="veh_passenger" speedFactor="0.90" vaporized=""/>
    <tripinfo id="veh52" depart="694.00" departLane="-828030414#1_0" departPos="5.10" departSpeed="14.12" departDelay="0.13" arrival="749.00" arrivalLane="656746657_0" arrivalPos="49.81" arrivalSpeed="13.64" duration="55.00" routeLength="739.68" waitingTime="0.00" waitingCount="0" stopTime="0.00" timeLoss="2.26" rerouteNo="1" devices="tripinfo_veh52 routing_veh52 fcd_veh52" vType="veh_passenger" speedFactor="1.02" vaporized=""/>
    <tripinfo id="veh50" depart="668.00" departLane="118685486#3_0" departPos="5.10" departSpeed="0.00" departDelay="0.82" arrival="760.00" arrivalLane="372304670#2_0" arrivalPos="41.41" arrivalSpeed="11.77" duration="92.00" routeLength="967.53" waitingTime="0.00" waitingCount="0" stopTime="0.00" timeLoss="18.36" rerouteNo="1" devices="tripinfo_veh50 routing_veh50 fcd_veh50" vType="veh_passenger" speedFactor="0.85" vaporized=""/>
    <tripinfo id="veh55" depart="734.00" departLane="693811293#1_0" departPos="5.10" departSpeed="0.00" departDelay="0.10" arrival="783.00" arrivalLane="-303384171#3_0" arrivalPos="44.62" arrivalSpeed="13.05" duration="49.00" routeLength="608.58" waitingTime="0.00" waitingCount="0" stopTime="0.00" timeLoss="11.91" rerouteNo="1" devices="tripinfo_veh55 routing_veh55 fcd_veh55" vType="veh_passenger" speedFactor="1.00" vaporized=""/>
    <tripinfo id="veh53" depart="710.00" departLane="-658193950#4_0" departPos="5.10" departSpeed="0.00" departDelay="2.79" arrival="788.00" arrivalLane="-657580974#1_0" arrivalPos="25.34" arrivalSpeed="11.87" duration="78.00" routeLength="818.90" waitingTime="0.00" waitingCount="0" stopTime="0.00" timeLoss="23.90" rerouteNo="1" devices="tripinfo_veh53 routing_veh53 fcd_veh53" vType="veh_passenger" speedFactor="1.10" vaporized=""/>
    <tripinfo id="veh49" depart="654.00" departLane="968341207_0" departPos="5.10" departSpeed="0.00" departDelay="0.16" arrival="806.00" arrivalLane="672362747#0_0" arrivalPos="41.62" arrivalSpeed="11.54" duration="152.00" routeLength="1538.15" waitingTime="0.00" waitingCount="0" stopTime="0.00" timeLoss="24.14" rerouteNo="1" devices="tripinfo_veh49 routing_veh49 fcd_veh49" vType="veh_passenger" speedFactor="0.85" vaporized=""/>
    <tripinfo id="veh57" depart="761.00" departLane="-657580974#1_0" departPos="5.10" departSpeed="0.00" departDelay="0.41" arrival="819.00" arrivalLane="-372304670#1_0" arrivalPos="19.93" arrivalSpeed="14.75" duration="58.00" routeLength="690.58" waitingTime="0.00" waitingCount="0" stopTime="0.00" timeLoss="16.16" rerouteNo="1" devices="tripinfo_veh57 routing_veh57 fcd_veh57" vType="veh_passenger" speedFactor="1.14" vaporized=""/>
    <tripinfo id="veh54" depart="721.00" departLane="-303384173_0" departPos="5.10" departSpeed="0.00" departDelay="0.44" arrival="825.00" arrivalLane="658178872#1_0" arrivalPos="98.36" arrivalSpeed="13.63" duration="104.00" routeLength="1232.09" waitingTime="0.00" waitingCount="0" stopTime="0.00" timeLoss="26.65" rerouteNo="1" devices="tripinfo_veh54 routing_veh54 fcd_veh54" vType="veh_passenger" speedFactor="1.00" vaporized=""/>
    <tripinfo id="veh59" depart="788.00" departLane="-350625627#4_0" departPos="5.10" departSpeed="0.00" departDelay="0.73" arrival="836.00" arrivalLane="118685486#0_0" arrivalPos="31.21" arrivalSpeed="10.97" duration="48.00" routeLength="445.61" waitingTime="0.00" waitingCount="0" stopTime="0.00" timeLoss="13.13" rerouteNo="1" devices="tripinfo_veh59 routing_veh59 fcd_veh59" vType="veh_passenger" speedFactor="0.97" vaporized=""/>
    <tripinfo id="veh58" depart="774.00" departLane="1307454892_0" departPos="5.10" departSpeed="22.74" departDelay="0.07" arrival="852.00" arrivalLane="693811295_0" arrivalPos="11.56" arrivalSpeed="10.44" duration="78.00" routeLength="815.52" waitingTime="25.00" waitingCount="1" stopTime="0.00" timeLoss="36.44" rerouteNo="1" devices="tripinfo_veh58 routing_veh58 fcd_veh58" vType="veh_passenger" speedFactor="1.02" vaporized=""/>
    <tripinfo id="veh56" depart="748.00" departLane="-658193952_0" departPos="5.10" departSpeed="0.00" departDelay="0.76" arrival="864.00" arrivalLane="676191113#0_0" arrivalPos="114.41" arrivalSpeed="11.39" duration="116.00" routeLength="1319.36" waitingTime="0.00" waitingCount="0" stopTime="0.00" timeLoss="19.41" rerouteNo="1" devices="tripinfo_veh56 routing_veh56 fcd_veh56" vType="veh_passenger" speedFactor="0.90" vaporized=""/>
    <tripinfo id="veh60" depart="801.00" departLane="118685471_0" departPos="5.10" departSpeed="0.00" departDelay="0.38" arrival="875.00" arrivalLane="1332821635#0_0" arrivalPos="36.48" arrivalSpeed="13.32" duration="74.00" routeLength="936.09" waitingTime="0.00" waitingCount="0" stopTime="0.00" timeLoss="19.07" rerouteNo="1" devices="tripinfo_veh60 routing_veh60 fcd_veh60" vType="veh_passenger" speedFactor="1.08" vaporized=""/>
    <tripinfo id="veh63" depart="841.00" departLane="693811293#1_0" departPos="5.10" departSpeed="0.00" departDelay="0.35" arrival="877.00" arrivalLane="-675974308#0_0" arrivalPos="41.17" arrivalSpeed="21.06" duration="36.00" routeLength="509.15" waitingTime="0.00" waitingCount="0" stopTime="0.00" timeLoss="7.97" rerouteNo="1" devices="tripinfo_veh63 routing_veh63 fcd_veh63" vType="veh_passenger" speedFactor="0.99" vaporized=""/>
    <tripinfo id="veh62" depart="828.00" departLane="896437702_0" departPos="5.10" departSpeed="10.46" departDelay="0.69" arrival="918.00" arrivalLane="-344735755#0_0" arrivalPos="2.47" arrivalSpeed="12.98" duration="90.00" routeLength="1142.22" waitingTime="0.00" waitingCount="0" stopTime="0.00" timeLoss="17.93" rerouteNo="1" devices="tripinfo_veh62 routing_veh62 fcd_veh62" vType="veh_passenger" speedFactor="1.02" vaporized=""/>
    <tripinfo id="veh61" depart="814.00" departLane="675974310#0_0" departPos="5.10" departSpeed="15.55" departDelay="0.04" arrival="927.00" arrivalLane="676191113#2_0" arrivalPos="34.06" arrivalSpeed="13.04" duration="113.00" routeLength="1354.68" waitingTime="0.00" waitingCount="0" stopTime="0.00" timeLoss="28.10" rerouteNo="1" devices="tripinfo_veh61 routing_veh61 fcd_veh61" vType="veh_passenger" speedFactor="1.12" vaporized=""/>
    <tripinfo id="veh64" depart="854.00" departLane="-657565150#1_0" departPos="5.10" departSpeed="0.00" departDelay="0.01" arrival="931.00" arrivalLane="118685574#2_0" arrivalPos="53.19" arrivalSpeed="12.55" duration="77.00" routeLength="740.90" waitingTime="0.00" waitingCount="0" stopTime="0.00" timeLoss="21.08" rerouteNo="1" devices="tripinfo_veh64 routing_veh64 fcd_veh64" vType="veh_passenger" speedFactor="0.94" vaporized=""/>